+ 2 /NodeList/6/DeviceList/0/$ns3::CsmaNetDevice/TxQueue/Enqueue ns3::EthernetHeader ( length/type=0x806, source=00:00:00:00:00:07, destination=ff:ff:ff:ff:ff:ff) ns3::ArpHeader (request source mac: 00-06-00:00:00:00:00:07 source ipv4: 11.63.5.7 dest ipv4: 11.63.5.3) Payload (size=18) ns3::EthernetTrailer (fcs=0)
- 2 /NodeList/6/DeviceList/0/$ns3::CsmaNetDevice/TxQueue/Dequeue ns3::EthernetHeader ( length/type=0x806, source=00:00:00:00:00:07, destination=ff:ff:ff:ff:ff:ff) ns3::ArpHeader (request source mac: 00-06-00:00:00:00:00:07 source ipv4: 11.63.5.7 dest ipv4: 11.63.5.3) Payload (size=18) ns3::EthernetTrailer (fcs=0)
+ 2.001 /NodeList/0/DeviceList/0/$ns3::CsmaNetDevice/TxQueue/Enqueue ns3::EthernetHeader ( length/type=0x806, source=00:00:00:00:00:01, destination=ff:ff:ff:ff:ff:ff) ns3::ArpHeader (request source mac: 00-06-00:00:00:00:00:01 source ipv4: 11.63.5.1 dest ipv4: 11.63.5.5) Payload (size=18) ns3::EthernetTrailer (fcs=0)
- 2.001 /NodeList/0/DeviceList/0/$ns3::CsmaNetDevice/TxQueue/Dequeue ns3::EthernetHeader ( length/type=0x806, source=00:00:00:00:00:01, destination=ff:ff:ff:ff:ff:ff) ns3::ArpHeader (request source mac: 00-06-00:00:00:00:00:01 source ipv4: 11.63.5.1 dest ipv4: 11.63.5.5) Payload (size=18) ns3::EthernetTrailer (fcs=0)
r 2.0025 /NodeList/0/DeviceList/0/$ns3::CsmaNetDevice/MacRx ns3::EthernetHeader ( length/type=0x806, source=00:00:00:00:00:07, destination=ff:ff:ff:ff:ff:ff) ns3::ArpHeader (request source mac: 00-06-00:00:00:00:00:07 source ipv4: 11.63.5.7 dest ipv4: 11.63.5.3) Payload (size=18) ns3::EthernetTrailer (fcs=0)
r 2.0025 /NodeList/1/DeviceList/0/$ns3::CsmaNetDevice/MacRx ns3::EthernetHeader ( length/type=0x806, source=00:00:00:00:00:07, destination=ff:ff:ff:ff:ff:ff) ns3::ArpHeader (request source mac: 00-06-00:00:00:00:00:07 source ipv4: 11.63.5.7 dest ipv4: 11.63.5.3) Payload (size=18) ns3::EthernetTrailer (fcs=0)
r 2.0025 /NodeList/2/DeviceList/0/$ns3::CsmaNetDevice/MacRx ns3::EthernetHeader ( length/type=0x806, source=00:00:00:00:00:07, destination=ff:ff:ff:ff:ff:ff) ns3::ArpHeader (request source mac: 00-06-00:00:00:00:00:07 source ipv4: 11.63.5.7 dest ipv4: 11.63.5.3) Payload (size=18) ns3::EthernetTrailer (fcs=0)
+ 2.0025 /NodeList/2/DeviceList/0/$ns3::CsmaNetDevice/TxQueue/Enqueue ns3::EthernetHeader ( length/type=0x806, source=00:00:00:00:00:03, destination=00:00:00:00:00:07) ns3::ArpHeader (reply source mac: 00-06-00:00:00:00:00:03 source ipv4: 11.63.5.3 dest mac: 00-06-00:00:00:00:00:07 dest ipv4: 11.63.5.7) Payload (size=18) ns3::EthernetTrailer (fcs=0)
- 2.0025 /NodeList/2/DeviceList/0/$ns3::CsmaNetDevice/TxQueue/Dequeue ns3::EthernetHeader ( length/type=0x806, source=00:00:00:00:00:03, destination=00:00:00:00:00:07) ns3::ArpHeader (reply source mac: 00-06-00:00:00:00:00:03 source ipv4: 11.63.5.3 dest mac: 00-06-00:00:00:00:00:07 dest ipv4: 11.63.5.7) Payload (size=18) ns3::EthernetTrailer (fcs=0)
r 2.0025 /NodeList/3/DeviceList/0/$ns3::CsmaNetDevice/MacRx ns3::EthernetHeader ( length/type=0x806, source=00:00:00:00:00:07, destination=ff:ff:ff:ff:ff:ff) ns3::ArpHeader (request source mac: 00-06-00:00:00:00:00:07 source ipv4: 11.63.5.7 dest ipv4: 11.63.5.3) Payload (size=18) ns3::EthernetTrailer (fcs=0)
r 2.0025 /NodeList/4/DeviceList/0/$ns3::CsmaNetDevice/MacRx ns3::EthernetHeader ( length/type=0x806, source=00:00:00:00:00:07, destination=ff:ff:ff:ff:ff:ff) ns3::ArpHeader (request source mac: 00-06-00:00:00:00:00:07 source ipv4: 11.63.5.7 dest ipv4: 11.63.5.3) Payload (size=18) ns3::EthernetTrailer (fcs=0)
r 2.0025 /NodeList/5/DeviceList/0/$ns3::CsmaNetDevice/MacRx ns3::EthernetHeader ( length/type=0x806, source=00:00:00:00:00:07, destination=ff:ff:ff:ff:ff:ff) ns3::ArpHeader (request source mac: 00-06-00:00:00:00:00:07 source ipv4: 11.63.5.7 dest ipv4: 11.63.5.3) Payload (size=18) ns3::EthernetTrailer (fcs=0)
r 2.0025 /NodeList/7/DeviceList/0/$ns3::CsmaNetDevice/MacRx ns3::EthernetHeader ( length/type=0x806, source=00:00:00:00:00:07, destination=ff:ff:ff:ff:ff:ff) ns3::ArpHeader (request source mac: 00-06-00:00:00:00:00:07 source ipv4: 11.63.5.7 dest ipv4: 11.63.5.3) Payload (size=18) ns3::EthernetTrailer (fcs=0)
+ 2.005 /NodeList/7/DeviceList/0/$ns3::CsmaNetDevice/TxQueue/Enqueue ns3::EthernetHeader ( length/type=0x806, source=00:00:00:00:00:08, destination=ff:ff:ff:ff:ff:ff) ns3::ArpHeader (request source mac: 00-06-00:00:00:00:00:08 source ipv4: 11.63.5.8 dest ipv4: 11.63.5.4) Payload (size=18) ns3::EthernetTrailer (fcs=0)
- 2.005 /NodeList/7/DeviceList/0/$ns3::CsmaNetDevice/TxQueue/Dequeue ns3::EthernetHeader ( length/type=0x806, source=00:00:00:00:00:08, destination=ff:ff:ff:ff:ff:ff) ns3::ArpHeader (request source mac: 00-06-00:00:00:00:00:08 source ipv4: 11.63.5.8 dest ipv4: 11.63.5.4) Payload (size=18) ns3::EthernetTrailer (fcs=0)
r 2.005 /NodeList/6/DeviceList/0/$ns3::CsmaNetDevice/MacRx ns3::EthernetHeader ( length/type=0x806, source=00:00:00:00:00:03, destination=00:00:00:00:00:07) ns3::ArpHeader (reply source mac: 00-06-00:00:00:00:00:03 source ipv4: 11.63.5.3 dest mac: 00-06-00:00:00:00:00:07 dest ipv4: 11.63.5.7) Payload (size=18) ns3::EthernetTrailer (fcs=0)
+ 2.005 /NodeList/6/DeviceList/0/$ns3::CsmaNetDevice/TxQueue/Enqueue ns3::EthernetHeader ( length/type=0x800, source=00:00:00:00:00:07, destination=00:00:00:00:00:03) ns3::Ipv4Header (tos 0x0 DSCP Default ECN Not-ECT ttl 64 id 0 protocol 17 offset (bytes) 0 flags [none] length: 164 11.63.5.7 > 11.63.5.3) ns3::UdpHeader (length: 144 49153 > 9) Payload (size=136) ns3::EthernetTrailer (fcs=0)
- 2.005 /NodeList/6/DeviceList/0/$ns3::CsmaNetDevice/TxQueue/Dequeue ns3::EthernetHeader ( length/type=0x800, source=00:00:00:00:00:07, destination=00:00:00:00:00:03) ns3::Ipv4Header (tos 0x0 DSCP Default ECN Not-ECT ttl 64 id 0 protocol 17 offset (bytes) 0 flags [none] length: 164 11.63.5.7 > 11.63.5.3) ns3::UdpHeader (length: 144 49153 > 9) Payload (size=136) ns3::EthernetTrailer (fcs=0)
r 2.00751 /NodeList/0/DeviceList/0/$ns3::CsmaNetDevice/MacRx ns3::EthernetHeader ( length/type=0x806, source=00:00:00:00:00:08, destination=ff:ff:ff:ff:ff:ff) ns3::ArpHeader (request source mac: 00-06-00:00:00:00:00:08 source ipv4: 11.63.5.8 dest ipv4: 11.63.5.4) Payload (size=18) ns3::EthernetTrailer (fcs=0)
r 2.00751 /NodeList/1/DeviceList/0/$ns3::CsmaNetDevice/MacRx ns3::EthernetHeader ( length/type=0x806, source=00:00:00:00:00:08, destination=ff:ff:ff:ff:ff:ff) ns3::ArpHeader (request source mac: 00-06-00:00:00:00:00:08 source ipv4: 11.63.5.8 dest ipv4: 11.63.5.4) Payload (size=18) ns3::EthernetTrailer (fcs=0)
r 2.00751 /NodeList/2/DeviceList/0/$ns3::CsmaNetDevice/MacRx ns3::EthernetHeader ( length/type=0x806, source=00:00:00:00:00:08, destination=ff:ff:ff:ff:ff:ff) ns3::ArpHeader (request source mac: 00-06-00:00:00:00:00:08 source ipv4: 11.63.5.8 dest ipv4: 11.63.5.4) Payload (size=18) ns3::EthernetTrailer (fcs=0)
r 2.00751 /NodeList/3/DeviceList/0/$ns3::CsmaNetDevice/MacRx ns3::EthernetHeader ( length/type=0x806, source=00:00:00:00:00:08, destination=ff:ff:ff:ff:ff:ff) ns3::ArpHeader (request source mac: 00-06-00:00:00:00:00:08 source ipv4: 11.63.5.8 dest ipv4: 11.63.5.4) Payload (size=18) ns3::EthernetTrailer (fcs=0)
+ 2.00751 /NodeList/3/DeviceList/0/$ns3::CsmaNetDevice/TxQueue/Enqueue ns3::EthernetHeader ( length/type=0x806, source=00:00:00:00:00:04, destination=00:00:00:00:00:08) ns3::ArpHeader (reply source mac: 00-06-00:00:00:00:00:04 source ipv4: 11.63.5.4 dest mac: 00-06-00:00:00:00:00:08 dest ipv4: 11.63.5.8) Payload (size=18) ns3::EthernetTrailer (fcs=0)
- 2.00751 /NodeList/3/DeviceList/0/$ns3::CsmaNetDevice/TxQueue/Dequeue ns3::EthernetHeader ( length/type=0x806, source=00:00:00:00:00:04, destination=00:00:00:00:00:08) ns3::ArpHeader (reply source mac: 00-06-00:00:00:00:00:04 source ipv4: 11.63.5.4 dest mac: 00-06-00:00:00:00:00:08 dest ipv4: 11.63.5.8) Payload (size=18) ns3::EthernetTrailer (fcs=0)
r 2.00751 /NodeList/4/DeviceList/0/$ns3::CsmaNetDevice/MacRx ns3::EthernetHeader ( length/type=0x806, source=00:00:00:00:00:08, destination=ff:ff:ff:ff:ff:ff) ns3::ArpHeader (request source mac: 00-06-00:00:00:00:00:08 source ipv4: 11.63.5.8 dest ipv4: 11.63.5.4) Payload (size=18) ns3::EthernetTrailer (fcs=0)
r 2.00751 /NodeList/5/DeviceList/0/$ns3::CsmaNetDevice/MacRx ns3::EthernetHeader ( length/type=0x806, source=00:00:00:00:00:08, destination=ff:ff:ff:ff:ff:ff) ns3::ArpHeader (request source mac: 00-06-00:00:00:00:00:08 source ipv4: 11.63.5.8 dest ipv4: 11.63.5.4) Payload (size=18) ns3::EthernetTrailer (fcs=0)
r 2.00751 /NodeList/6/DeviceList/0/$ns3::CsmaNetDevice/MacRx ns3::EthernetHeader ( length/type=0x806, source=00:00:00:00:00:08, destination=ff:ff:ff:ff:ff:ff) ns3::ArpHeader (request source mac: 00-06-00:00:00:00:00:08 source ipv4: 11.63.5.8 dest ipv4: 11.63.5.4) Payload (size=18) ns3::EthernetTrailer (fcs=0)
+ 2.009 /NodeList/1/DeviceList/0/$ns3::CsmaNetDevice/TxQueue/Enqueue ns3::EthernetHeader ( length/type=0x806, source=00:00:00:00:00:02, destination=ff:ff:ff:ff:ff:ff) ns3::ArpHeader (request source mac: 00-06-00:00:00:00:00:02 source ipv4: 11.63.5.2 dest ipv4: 11.63.5.6) Payload (size=18) ns3::EthernetTrailer (fcs=0)
- 2.009 /NodeList/1/DeviceList/0/$ns3::CsmaNetDevice/TxQueue/Dequeue ns3::EthernetHeader ( length/type=0x806, source=00:00:00:00:00:02, destination=ff:ff:ff:ff:ff:ff) ns3::ArpHeader (request source mac: 00-06-00:00:00:00:00:02 source ipv4: 11.63.5.2 dest ipv4: 11.63.5.6) Payload (size=18) ns3::EthernetTrailer (fcs=0)
r 2.01001 /NodeList/7/DeviceList/0/$ns3::CsmaNetDevice/MacRx ns3::EthernetHeader ( length/type=0x806, source=00:00:00:00:00:04, destination=00:00:00:00:00:08) ns3::ArpHeader (reply source mac: 00-06-00:00:00:00:00:04 source ipv4: 11.63.5.4 dest mac: 00-06-00:00:00:00:00:08 dest ipv4: 11.63.5.8) Payload (size=18) ns3::EthernetTrailer (fcs=0)
+ 2.01001 /NodeList/7/DeviceList/0/$ns3::CsmaNetDevice/TxQueue/Enqueue ns3::EthernetHeader ( length/type=0x800, source=00:00:00:00:00:08, destination=00:00:00:00:00:04) ns3::Ipv4Header (tos 0x0 DSCP Default ECN Not-ECT ttl 64 id 0 protocol 17 offset (bytes) 0 flags [none] length: 164 11.63.5.8 > 11.63.5.4) ns3::UdpHeader (length: 144 49153 > 9) Payload (size=136) ns3::EthernetTrailer (fcs=0)
- 2.01001 /NodeList/7/DeviceList/0/$ns3::CsmaNetDevice/TxQueue/Dequeue ns3::EthernetHeader ( length/type=0x800, source=00:00:00:00:00:08, destination=00:00:00:00:00:04) ns3::Ipv4Header (tos 0x0 DSCP Default ECN Not-ECT ttl 64 id 0 protocol 17 offset (bytes) 0 flags [none] length: 164 11.63.5.8 > 11.63.5.4) ns3::UdpHeader (length: 144 49153 > 9) Payload (size=136) ns3::EthernetTrailer (fcs=0)
r 2.01343 /NodeList/3/DeviceList/0/$ns3::CsmaNetDevice/MacRx ns3::EthernetHeader ( length/type=0x800, source=00:00:00:00:00:08, destination=00:00:00:00:00:04) ns3::Ipv4Header (tos 0x0 DSCP Default ECN Not-ECT ttl 64 id 0 protocol 17 offset (bytes) 0 flags [none] length: 164 11.63.5.8 > 11.63.5.4) ns3::UdpHeader (length: 144 49153 > 9) Payload (size=136) ns3::EthernetTrailer (fcs=0)
+ 2.01643 /NodeList/3/DeviceList/0/$ns3::CsmaNetDevice/TxQueue/Enqueue ns3::EthernetHeader ( length/type=0x806, source=00:00:00:00:00:04, destination=ff:ff:ff:ff:ff:ff) ns3::ArpHeader (request source mac: 00-06-00:00:00:00:00:04 source ipv4: 11.63.5.4 dest ipv4: 11.63.5.8) Payload (size=18) ns3::EthernetTrailer (fcs=0)
- 2.01643 /NodeList/3/DeviceList/0/$ns3::CsmaNetDevice/TxQueue/Dequeue ns3::EthernetHeader ( length/type=0x806, source=00:00:00:00:00:04, destination=ff:ff:ff:ff:ff:ff) ns3::ArpHeader (request source mac: 00-06-00:00:00:00:00:04 source ipv4: 11.63.5.4 dest ipv4: 11.63.5.8) Payload (size=18) ns3::EthernetTrailer (fcs=0)
r 2.01894 /NodeList/0/DeviceList/0/$ns3::CsmaNetDevice/MacRx ns3::EthernetHeader ( length/type=0x806, source=00:00:00:00:00:04, destination=ff:ff:ff:ff:ff:ff) ns3::ArpHeader (request source mac: 00-06-00:00:00:00:00:04 source ipv4: 11.63.5.4 dest ipv4: 11.63.5.8) Payload (size=18) ns3::EthernetTrailer (fcs=0)
r 2.01894 /NodeList/1/DeviceList/0/$ns3::CsmaNetDevice/MacRx ns3::EthernetHeader ( length/type=0x806, source=00:00:00:00:00:04, destination=ff:ff:ff:ff:ff:ff) ns3::ArpHeader (request source mac: 00-06-00:00:00:00:00:04 source ipv4: 11.63.5.4 dest ipv4: 11.63.5.8) Payload (size=18) ns3::EthernetTrailer (fcs=0)
r 2.01894 /NodeList/2/DeviceList/0/$ns3::CsmaNetDevice/MacRx ns3::EthernetHeader ( length/type=0x806, source=00:00:00:00:00:04, destination=ff:ff:ff:ff:ff:ff) ns3::ArpHeader (request source mac: 00-06-00:00:00:00:00:04 source ipv4: 11.63.5.4 dest ipv4: 11.63.5.8) Payload (size=18) ns3::EthernetTrailer (fcs=0)
r 2.01894 /NodeList/4/DeviceList/0/$ns3::CsmaNetDevice/MacRx ns3::EthernetHeader ( length/type=0x806, source=00:00:00:00:00:04, destination=ff:ff:ff:ff:ff:ff) ns3::ArpHeader (request source mac: 00-06-00:00:00:00:00:04 source ipv4: 11.63.5.4 dest ipv4: 11.63.5.8) Payload (size=18) ns3::EthernetTrailer (fcs=0)
r 2.01894 /NodeList/5/DeviceList/0/$ns3::CsmaNetDevice/MacRx ns3::EthernetHeader ( length/type=0x806, source=00:00:00:00:00:04, destination=ff:ff:ff:ff:ff:ff) ns3::ArpHeader (request source mac: 00-06-00:00:00:00:00:04 source ipv4: 11.63.5.4 dest ipv4: 11.63.5.8) Payload (size=18) ns3::EthernetTrailer (fcs=0)
r 2.01894 /NodeList/6/DeviceList/0/$ns3::CsmaNetDevice/MacRx ns3::EthernetHeader ( length/type=0x806, source=00:00:00:00:00:04, destination=ff:ff:ff:ff:ff:ff) ns3::ArpHeader (request source mac: 00-06-00:00:00:00:00:04 source ipv4: 11.63.5.4 dest ipv4: 11.63.5.8) Payload (size=18) ns3::EthernetTrailer (fcs=0)
r 2.01894 /NodeList/7/DeviceList/0/$ns3::CsmaNetDevice/MacRx ns3::EthernetHeader ( length/type=0x806, source=00:00:00:00:00:04, destination=ff:ff:ff:ff:ff:ff) ns3::ArpHeader (request source mac: 00-06-00:00:00:00:00:04 source ipv4: 11.63.5.4 dest ipv4: 11.63.5.8) Payload (size=18) ns3::EthernetTrailer (fcs=0)
+ 2.01894 /NodeList/7/DeviceList/0/$ns3::CsmaNetDevice/TxQueue/Enqueue ns3::EthernetHeader ( length/type=0x806, source=00:00:00:00:00:08, destination=00:00:00:00:00:04) ns3::ArpHeader (reply source mac: 00-06-00:00:00:00:00:08 source ipv4: 11.63.5.8 dest mac: 00-06-00:00:00:00:00:04 dest ipv4: 11.63.5.4) Payload (size=18) ns3::EthernetTrailer (fcs=0)
- 2.01894 /NodeList/7/DeviceList/0/$ns3::CsmaNetDevice/TxQueue/Dequeue ns3::EthernetHeader ( length/type=0x806, source=00:00:00:00:00:08, destination=00:00:00:00:00:04) ns3::ArpHeader (reply source mac: 00-06-00:00:00:00:00:08 source ipv4: 11.63.5.8 dest mac: 00-06-00:00:00:00:00:04 dest ipv4: 11.63.5.4) Payload (size=18) ns3::EthernetTrailer (fcs=0)
r 2.02144 /NodeList/3/DeviceList/0/$ns3::CsmaNetDevice/MacRx ns3::EthernetHeader ( length/type=0x806, source=00:00:00:00:00:08, destination=00:00:00:00:00:04) ns3::ArpHeader (reply source mac: 00-06-00:00:00:00:00:08 source ipv4: 11.63.5.8 dest mac: 00-06-00:00:00:00:00:04 dest ipv4: 11.63.5.4) Payload (size=18) ns3::EthernetTrailer (fcs=0)
+ 2.02144 /NodeList/3/DeviceList/0/$ns3::CsmaNetDevice/TxQueue/Enqueue ns3::EthernetHeader ( length/type=0x800, source=00:00:00:00:00:04, destination=00:00:00:00:00:08) ns3::Ipv4Header (tos 0x0 DSCP Default ECN Not-ECT ttl 64 id 0 protocol 17 offset (bytes) 0 flags [none] length: 164 11.63.5.4 > 11.63.5.8) ns3::UdpHeader (length: 144 9 > 49153) Payload (size=136) ns3::EthernetTrailer (fcs=0)
- 2.02144 /NodeList/3/DeviceList/0/$ns3::CsmaNetDevice/TxQueue/Dequeue ns3::EthernetHeader ( length/type=0x800, source=00:00:00:00:00:04, destination=00:00:00:00:00:08) ns3::Ipv4Header (tos 0x0 DSCP Default ECN Not-ECT ttl 64 id 0 protocol 17 offset (bytes) 0 flags [none] length: 164 11.63.5.4 > 11.63.5.8) ns3::UdpHeader (length: 144 9 > 49153) Payload (size=136) ns3::EthernetTrailer (fcs=0)
r 2.02487 /NodeList/7/DeviceList/0/$ns3::CsmaNetDevice/MacRx ns3::EthernetHeader ( length/type=0x800, source=00:00:00:00:00:04, destination=00:00:00:00:00:08) ns3::Ipv4Header (tos 0x0 DSCP Default ECN Not-ECT ttl 64 id 0 protocol 17 offset (bytes) 0 flags [none] length: 164 11.63.5.4 > 11.63.5.8) ns3::UdpHeader (length: 144 9 > 49153) Payload (size=136) ns3::EthernetTrailer (fcs=0)
+ 3 /NodeList/0/DeviceList/0/$ns3::CsmaNetDevice/TxQueue/Enqueue ns3::EthernetHeader ( length/type=0x806, source=00:00:00:00:00:01, destination=ff:ff:ff:ff:ff:ff) ns3::ArpHeader (request source mac: 00-06-00:00:00:00:00:01 source ipv4: 11.63.5.1 dest ipv4: 11.63.5.5) Payload (size=18) ns3::EthernetTrailer (fcs=0)
- 3 /NodeList/0/DeviceList/0/$ns3::CsmaNetDevice/TxQueue/Dequeue ns3::EthernetHeader ( length/type=0x806, source=00:00:00:00:00:01, destination=ff:ff:ff:ff:ff:ff) ns3::ArpHeader (request source mac: 00-06-00:00:00:00:00:01 source ipv4: 11.63.5.1 dest ipv4: 11.63.5.5) Payload (size=18) ns3::EthernetTrailer (fcs=0)
+ 3 /NodeList/1/DeviceList/0/$ns3::CsmaNetDevice/TxQueue/Enqueue ns3::EthernetHeader ( length/type=0x806, source=00:00:00:00:00:02, destination=ff:ff:ff:ff:ff:ff) ns3::ArpHeader (request source mac: 00-06-00:00:00:00:00:02 source ipv4: 11.63.5.2 dest ipv4: 11.63.5.6) Payload (size=18) ns3::EthernetTrailer (fcs=0)
- 3 /NodeList/1/DeviceList/0/$ns3::CsmaNetDevice/TxQueue/Dequeue ns3::EthernetHeader ( length/type=0x806, source=00:00:00:00:00:02, destination=ff:ff:ff:ff:ff:ff) ns3::ArpHeader (request source mac: 00-06-00:00:00:00:00:02 source ipv4: 11.63.5.2 dest ipv4: 11.63.5.6) Payload (size=18) ns3::EthernetTrailer (fcs=0)
r 3.0025 /NodeList/0/DeviceList/0/$ns3::CsmaNetDevice/MacRx ns3::EthernetHeader ( length/type=0x806, source=00:00:00:00:00:02, destination=ff:ff:ff:ff:ff:ff) ns3::ArpHeader (request source mac: 00-06-00:00:00:00:00:02 source ipv4: 11.63.5.2 dest ipv4: 11.63.5.6) Payload (size=18) ns3::EthernetTrailer (fcs=0)
r 3.0025 /NodeList/2/DeviceList/0/$ns3::CsmaNetDevice/MacRx ns3::EthernetHeader ( length/type=0x806, source=00:00:00:00:00:02, destination=ff:ff:ff:ff:ff:ff) ns3::ArpHeader (request source mac: 00-06-00:00:00:00:00:02 source ipv4: 11.63.5.2 dest ipv4: 11.63.5.6) Payload (size=18) ns3::EthernetTrailer (fcs=0)
r 3.0025 /NodeList/3/DeviceList/0/$ns3::CsmaNetDevice/MacRx ns3::EthernetHeader ( length/type=0x806, source=00:00:00:00:00:02, destination=ff:ff:ff:ff:ff:ff) ns3::ArpHeader (request source mac: 00-06-00:00:00:00:00:02 source ipv4: 11.63.5.2 dest ipv4: 11.63.5.6) Payload (size=18) ns3::EthernetTrailer (fcs=0)
r 3.0025 /NodeList/4/DeviceList/0/$ns3::CsmaNetDevice/MacRx ns3::EthernetHeader ( length/type=0x806, source=00:00:00:00:00:02, destination=ff:ff:ff:ff:ff:ff) ns3::ArpHeader (request source mac: 00-06-00:00:00:00:00:02 source ipv4: 11.63.5.2 dest ipv4: 11.63.5.6) Payload (size=18) ns3::EthernetTrailer (fcs=0)
r 3.0025 /NodeList/5/DeviceList/0/$ns3::CsmaNetDevice/MacRx ns3::EthernetHeader ( length/type=0x806, source=00:00:00:00:00:02, destination=ff:ff:ff:ff:ff:ff) ns3::ArpHeader (request source mac: 00-06-00:00:00:00:00:02 source ipv4: 11.63.5.2 dest ipv4: 11.63.5.6) Payload (size=18) ns3::EthernetTrailer (fcs=0)
+ 3.0025 /NodeList/5/DeviceList/0/$ns3::CsmaNetDevice/TxQueue/Enqueue ns3::EthernetHeader ( length/type=0x806, source=00:00:00:00:00:06, destination=00:00:00:00:00:02) ns3::ArpHeader (reply source mac: 00-06-00:00:00:00:00:06 source ipv4: 11.63.5.6 dest mac: 00-06-00:00:00:00:00:02 dest ipv4: 11.63.5.2) Payload (size=18) ns3::EthernetTrailer (fcs=0)
- 3.0025 /NodeList/5/DeviceList/0/$ns3::CsmaNetDevice/TxQueue/Dequeue ns3::EthernetHeader ( length/type=0x806, source=00:00:00:00:00:06, destination=00:00:00:00:00:02) ns3::ArpHeader (reply source mac: 00-06-00:00:00:00:00:06 source ipv4: 11.63.5.6 dest mac: 00-06-00:00:00:00:00:02 dest ipv4: 11.63.5.2) Payload (size=18) ns3::EthernetTrailer (fcs=0)
r 3.0025 /NodeList/6/DeviceList/0/$ns3::CsmaNetDevice/MacRx ns3::EthernetHeader ( length/type=0x806, source=00:00:00:00:00:02, destination=ff:ff:ff:ff:ff:ff) ns3::ArpHeader (request source mac: 00-06-00:00:00:00:00:02 source ipv4: 11.63.5.2 dest ipv4: 11.63.5.6) Payload (size=18) ns3::EthernetTrailer (fcs=0)
r 3.0025 /NodeList/7/DeviceList/0/$ns3::CsmaNetDevice/MacRx ns3::EthernetHeader ( length/type=0x806, source=00:00:00:00:00:02, destination=ff:ff:ff:ff:ff:ff) ns3::ArpHeader (request source mac: 00-06-00:00:00:00:00:02 source ipv4: 11.63.5.2 dest ipv4: 11.63.5.6) Payload (size=18) ns3::EthernetTrailer (fcs=0)
r 3.005 /NodeList/1/DeviceList/0/$ns3::CsmaNetDevice/MacRx ns3::EthernetHeader ( length/type=0x806, source=00:00:00:00:00:06, destination=00:00:00:00:00:02) ns3::ArpHeader (reply source mac: 00-06-00:00:00:00:00:06 source ipv4: 11.63.5.6 dest mac: 00-06-00:00:00:00:00:02 dest ipv4: 11.63.5.2) Payload (size=18) ns3::EthernetTrailer (fcs=0)
+ 3.005 /NodeList/1/DeviceList/0/$ns3::CsmaNetDevice/TxQueue/Enqueue ns3::EthernetHeader ( length/type=0x800, source=00:00:00:00:00:02, destination=00:00:00:00:00:06) ns3::Ipv4Header (tos 0x0 DSCP Default ECN Not-ECT ttl 64 id 0 protocol 17 offset (bytes) 0 flags [none] length: 164 11.63.5.2 > 11.63.5.6) ns3::UdpHeader (length: 144 49153 > 9) Payload (size=136) ns3::EthernetTrailer (fcs=0)
- 3.005 /NodeList/1/DeviceList/0/$ns3::CsmaNetDevice/TxQueue/Dequeue ns3::EthernetHeader ( length/type=0x800, source=00:00:00:00:00:02, destination=00:00:00:00:00:06) ns3::Ipv4Header (tos 0x0 DSCP Default ECN Not-ECT ttl 64 id 0 protocol 17 offset (bytes) 0 flags [none] length: 164 11.63.5.2 > 11.63.5.6) ns3::UdpHeader (length: 144 49153 > 9) Payload (size=136) ns3::EthernetTrailer (fcs=0)
r 3.00843 /NodeList/5/DeviceList/0/$ns3::CsmaNetDevice/MacRx ns3::EthernetHeader ( length/type=0x800, source=00:00:00:00:00:02, destination=00:00:00:00:00:06) ns3::Ipv4Header (tos 0x0 DSCP Default ECN Not-ECT ttl 64 id 0 protocol 17 offset (bytes) 0 flags [none] length: 164 11.63.5.2 > 11.63.5.6) ns3::UdpHeader (length: 144 49153 > 9) Payload (size=136) ns3::EthernetTrailer (fcs=0)
+ 3.01743 /NodeList/5/DeviceList/0/$ns3::CsmaNetDevice/TxQueue/Enqueue ns3::EthernetHeader ( length/type=0x806, source=00:00:00:00:00:06, destination=ff:ff:ff:ff:ff:ff) ns3::ArpHeader (request source mac: 00-06-00:00:00:00:00:06 source ipv4: 11.63.5.6 dest ipv4: 11.63.5.2) Payload (size=18) ns3::EthernetTrailer (fcs=0)
- 3.01743 /NodeList/5/DeviceList/0/$ns3::CsmaNetDevice/TxQueue/Dequeue ns3::EthernetHeader ( length/type=0x806, source=00:00:00:00:00:06, destination=ff:ff:ff:ff:ff:ff) ns3::ArpHeader (request source mac: 00-06-00:00:00:00:00:06 source ipv4: 11.63.5.6 dest ipv4: 11.63.5.2) Payload (size=18) ns3::EthernetTrailer (fcs=0)
r 3.01993 /NodeList/0/DeviceList/0/$ns3::CsmaNetDevice/MacRx ns3::EthernetHeader ( length/type=0x806, source=00:00:00:00:00:06, destination=ff:ff:ff:ff:ff:ff) ns3::ArpHeader (request source mac: 00-06-00:00:00:00:00:06 source ipv4: 11.63.5.6 dest ipv4: 11.63.5.2) Payload (size=18) ns3::EthernetTrailer (fcs=0)
r 3.01993 /NodeList/1/DeviceList/0/$ns3::CsmaNetDevice/MacRx ns3::EthernetHeader ( length/type=0x806, source=00:00:00:00:00:06, destination=ff:ff:ff:ff:ff:ff) ns3::ArpHeader (request source mac: 00-06-00:00:00:00:00:06 source ipv4: 11.63.5.6 dest ipv4: 11.63.5.2) Payload (size=18) ns3::EthernetTrailer (fcs=0)
+ 3.01993 /NodeList/1/DeviceList/0/$ns3::CsmaNetDevice/TxQueue/Enqueue ns3::EthernetHeader ( length/type=0x806, source=00:00:00:00:00:02, destination=00:00:00:00:00:06) ns3::ArpHeader (reply source mac: 00-06-00:00:00:00:00:02 source ipv4: 11.63.5.2 dest mac: 00-06-00:00:00:00:00:06 dest ipv4: 11.63.5.6) Payload (size=18) ns3::EthernetTrailer (fcs=0)
- 3.01993 /NodeList/1/DeviceList/0/$ns3::CsmaNetDevice/TxQueue/Dequeue ns3::EthernetHeader ( length/type=0x806, source=00:00:00:00:00:02, destination=00:00:00:00:00:06) ns3::ArpHeader (reply source mac: 00-06-00:00:00:00:00:02 source ipv4: 11.63.5.2 dest mac: 00-06-00:00:00:00:00:06 dest ipv4: 11.63.5.6) Payload (size=18) ns3::EthernetTrailer (fcs=0)
r 3.01993 /NodeList/2/DeviceList/0/$ns3::CsmaNetDevice/MacRx ns3::EthernetHeader ( length/type=0x806, source=00:00:00:00:00:06, destination=ff:ff:ff:ff:ff:ff) ns3::ArpHeader (request source mac: 00-06-00:00:00:00:00:06 source ipv4: 11.63.5.6 dest ipv4: 11.63.5.2) Payload (size=18) ns3::EthernetTrailer (fcs=0)
r 3.01993 /NodeList/3/DeviceList/0/$ns3::CsmaNetDevice/MacRx ns3::EthernetHeader ( length/type=0x806, source=00:00:00:00:00:06, destination=ff:ff:ff:ff:ff:ff) ns3::ArpHeader (request source mac: 00-06-00:00:00:00:00:06 source ipv4: 11.63.5.6 dest ipv4: 11.63.5.2) Payload (size=18) ns3::EthernetTrailer (fcs=0)
r 3.01993 /NodeList/4/DeviceList/0/$ns3::CsmaNetDevice/MacRx ns3::EthernetHeader ( length/type=0x806, source=00:00:00:00:00:06, destination=ff:ff:ff:ff:ff:ff) ns3::ArpHeader (request source mac: 00-06-00:00:00:00:00:06 source ipv4: 11.63.5.6 dest ipv4: 11.63.5.2) Payload (size=18) ns3::EthernetTrailer (fcs=0)
r 3.01993 /NodeList/6/DeviceList/0/$ns3::CsmaNetDevice/MacRx ns3::EthernetHeader ( length/type=0x806, source=00:00:00:00:00:06, destination=ff:ff:ff:ff:ff:ff) ns3::ArpHeader (request source mac: 00-06-00:00:00:00:00:06 source ipv4: 11.63.5.6 dest ipv4: 11.63.5.2) Payload (size=18) ns3::EthernetTrailer (fcs=0)
r 3.01993 /NodeList/7/DeviceList/0/$ns3::CsmaNetDevice/MacRx ns3::EthernetHeader ( length/type=0x806, source=00:00:00:00:00:06, destination=ff:ff:ff:ff:ff:ff) ns3::ArpHeader (request source mac: 00-06-00:00:00:00:00:06 source ipv4: 11.63.5.6 dest ipv4: 11.63.5.2) Payload (size=18) ns3::EthernetTrailer (fcs=0)
r 3.02244 /NodeList/5/DeviceList/0/$ns3::CsmaNetDevice/MacRx ns3::EthernetHeader ( length/type=0x806, source=00:00:00:00:00:02, destination=00:00:00:00:00:06) ns3::ArpHeader (reply source mac: 00-06-00:00:00:00:00:02 source ipv4: 11.63.5.2 dest mac: 00-06-00:00:00:00:00:06 dest ipv4: 11.63.5.6) Payload (size=18) ns3::EthernetTrailer (fcs=0)
+ 3.02244 /NodeList/5/DeviceList/0/$ns3::CsmaNetDevice/TxQueue/Enqueue ns3::EthernetHeader ( length/type=0x800, source=00:00:00:00:00:06, destination=00:00:00:00:00:02) ns3::Ipv4Header (tos 0x0 DSCP Default ECN Not-ECT ttl 64 id 0 protocol 17 offset (bytes) 0 flags [none] length: 164 11.63.5.6 > 11.63.5.2) ns3::UdpHeader (length: 144 9 > 49153) Payload (size=136) ns3::EthernetTrailer (fcs=0)
- 3.02244 /NodeList/5/DeviceList/0/$ns3::CsmaNetDevice/TxQueue/Dequeue ns3::EthernetHeader ( length/type=0x800, source=00:00:00:00:00:06, destination=00:00:00:00:00:02) ns3::Ipv4Header (tos 0x0 DSCP Default ECN Not-ECT ttl 64 id 0 protocol 17 offset (bytes) 0 flags [none] length: 164 11.63.5.6 > 11.63.5.2) ns3::UdpHeader (length: 144 9 > 49153) Payload (size=136) ns3::EthernetTrailer (fcs=0)
r 3.02587 /NodeList/1/DeviceList/0/$ns3::CsmaNetDevice/MacRx ns3::EthernetHeader ( length/type=0x800, source=00:00:00:00:00:06, destination=00:00:00:00:00:02) ns3::Ipv4Header (tos 0x0 DSCP Default ECN Not-ECT ttl 64 id 0 protocol 17 offset (bytes) 0 flags [none] length: 164 11.63.5.6 > 11.63.5.2) ns3::UdpHeader (length: 144 9 > 49153) Payload (size=136) ns3::EthernetTrailer (fcs=0)
+ 4 /NodeList/0/DeviceList/0/$ns3::CsmaNetDevice/TxQueue/Enqueue ns3::EthernetHeader ( length/type=0x806, source=00:00:00:00:00:01, destination=ff:ff:ff:ff:ff:ff) ns3::ArpHeader (request source mac: 00-06-00:00:00:00:00:01 source ipv4: 11.63.5.1 dest ipv4: 11.63.5.5) Payload (size=18) ns3::EthernetTrailer (fcs=0)
- 4 /NodeList/0/DeviceList/0/$ns3::CsmaNetDevice/TxQueue/Dequeue ns3::EthernetHeader ( length/type=0x806, source=00:00:00:00:00:01, destination=ff:ff:ff:ff:ff:ff) ns3::ArpHeader (request source mac: 00-06-00:00:00:00:00:01 source ipv4: 11.63.5.1 dest ipv4: 11.63.5.5) Payload (size=18) ns3::EthernetTrailer (fcs=0)
r 4.0025 /NodeList/1/DeviceList/0/$ns3::CsmaNetDevice/MacRx ns3::EthernetHeader ( length/type=0x806, source=00:00:00:00:00:01, destination=ff:ff:ff:ff:ff:ff) ns3::ArpHeader (request source mac: 00-06-00:00:00:00:00:01 source ipv4: 11.63.5.1 dest ipv4: 11.63.5.5) Payload (size=18) ns3::EthernetTrailer (fcs=0)
r 4.0025 /NodeList/2/DeviceList/0/$ns3::CsmaNetDevice/MacRx ns3::EthernetHeader ( length/type=0x806, source=00:00:00:00:00:01, destination=ff:ff:ff:ff:ff:ff) ns3::ArpHeader (request source mac: 00-06-00:00:00:00:00:01 source ipv4: 11.63.5.1 dest ipv4: 11.63.5.5) Payload (size=18) ns3::EthernetTrailer (fcs=0)
r 4.0025 /NodeList/3/DeviceList/0/$ns3::CsmaNetDevice/MacRx ns3::EthernetHeader ( length/type=0x806, source=00:00:00:00:00:01, destination=ff:ff:ff:ff:ff:ff) ns3::ArpHeader (request source mac: 00-06-00:00:00:00:00:01 source ipv4: 11.63.5.1 dest ipv4: 11.63.5.5) Payload (size=18) ns3::EthernetTrailer (fcs=0)
r 4.0025 /NodeList/4/DeviceList/0/$ns3::CsmaNetDevice/MacRx ns3::EthernetHeader ( length/type=0x806, source=00:00:00:00:00:01, destination=ff:ff:ff:ff:ff:ff) ns3::ArpHeader (request source mac: 00-06-00:00:00:00:00:01 source ipv4: 11.63.5.1 dest ipv4: 11.63.5.5) Payload (size=18) ns3::EthernetTrailer (fcs=0)
+ 4.0025 /NodeList/4/DeviceList/0/$ns3::CsmaNetDevice/TxQueue/Enqueue ns3::EthernetHeader ( length/type=0x806, source=00:00:00:00:00:05, destination=00:00:00:00:00:01) ns3::ArpHeader (reply source mac: 00-06-00:00:00:00:00:05 source ipv4: 11.63.5.5 dest mac: 00-06-00:00:00:00:00:01 dest ipv4: 11.63.5.1) Payload (size=18) ns3::EthernetTrailer (fcs=0)
- 4.0025 /NodeList/4/DeviceList/0/$ns3::CsmaNetDevice/TxQueue/Dequeue ns3::EthernetHeader ( length/type=0x806, source=00:00:00:00:00:05, destination=00:00:00:00:00:01) ns3::ArpHeader (reply source mac: 00-06-00:00:00:00:00:05 source ipv4: 11.63.5.5 dest mac: 00-06-00:00:00:00:00:01 dest ipv4: 11.63.5.1) Payload (size=18) ns3::EthernetTrailer (fcs=0)
r 4.0025 /NodeList/5/DeviceList/0/$ns3::CsmaNetDevice/MacRx ns3::EthernetHeader ( length/type=0x806, source=00:00:00:00:00:01, destination=ff:ff:ff:ff:ff:ff) ns3::ArpHeader (request source mac: 00-06-00:00:00:00:00:01 source ipv4: 11.63.5.1 dest ipv4: 11.63.5.5) Payload (size=18) ns3::EthernetTrailer (fcs=0)
r 4.0025 /NodeList/6/DeviceList/0/$ns3::CsmaNetDevice/MacRx ns3::EthernetHeader ( length/type=0x806, source=00:00:00:00:00:01, destination=ff:ff:ff:ff:ff:ff) ns3::ArpHeader (request source mac: 00-06-00:00:00:00:00:01 source ipv4: 11.63.5.1 dest ipv4: 11.63.5.5) Payload (size=18) ns3::EthernetTrailer (fcs=0)