+ 2 /NodeList/6/DeviceList/0/$ns3::CsmaNetDevice/TxQueue/Enqueue ns3::EthernetHeader ( length/type=0x806, source=00:00:00:00:00:07, destination=ff:ff:ff:ff:ff:ff) ns3::ArpHeader (request source mac: 00-06-00:00:00:00:00:07 source ipv4: 11.63.5.7 dest ipv4: 11.63.5.3) Payload (size=18) ns3::EthernetTrailer (fcs=0)
- 2 /NodeList/6/DeviceList/0/$ns3::CsmaNetDevice/TxQueue/Dequeue ns3::EthernetHeader ( length/type=0x806, source=00:00:00:00:00:07, destination=ff:ff:ff:ff:ff:ff) ns3::ArpHeader (request source mac: 00-06-00:00:00:00:00:07 source ipv4: 11.63.5.7 dest ipv4: 11.63.5.3) Payload (size=18) ns3::EthernetTrailer (fcs=0)
+ 2.001 /NodeList/0/DeviceList/0/$ns3::CsmaNetDevice/TxQueue/Enqueue ns3::EthernetHeader ( length/type=0x806, source=00:00:00:00:00:01, destination=ff:ff:ff:ff:ff:ff) ns3::ArpHeader (request source mac: 00-06-00:00:00:00:00:01 source ipv4: 11.63.5.1 dest ipv4: 11.63.5.5) Payload (size=18) ns3::EthernetTrailer (fcs=0)
- 2.001 /NodeList/0/DeviceList/0/$ns3::CsmaNetDevice/TxQueue/Dequeue ns3::EthernetHeader ( length/type=0x806, source=00:00:00:00:00:01, destination=ff:ff:ff:ff:ff:ff) ns3::ArpHeader (request source mac: 00-06-00:00:00:00:00:01 source ipv4: 11.63.5.1 dest ipv4: 11.63.5.5) Payload (size=18) ns3::EthernetTrailer (fcs=0)
r 2.0025 /NodeList/0/DeviceList/0/$ns3::CsmaNetDevice/MacRx ns3::EthernetHeader ( length/type=0x806, source=00:00:00:00:00:07, destination=ff:ff:ff:ff:ff:ff) ns3::ArpHeader (request source mac: 00-06-00:00:00:00:00:07 source ipv4: 11.63.5.7 dest ipv4: 11.63.5.3) Payload (size=18) ns3::EthernetTrailer (fcs=0)
r 2.0025 /NodeList/1/DeviceList/0/$ns3::CsmaNetDevice/MacRx ns3::EthernetHeader ( length/type=0x806, source=00:00:00:00:00:07, destination=ff:ff:ff:ff:ff:ff) ns3::ArpHeader (request source mac: 00-06-00:00:00:00:00:07 source ipv4: 11.63.5.7 dest ipv4: 11.63.5.3) Payload (size=18) ns3::EthernetTrailer (fcs=0)
r 2.0025 /NodeList/2/DeviceList/0/$ns3::CsmaNetDevice/MacRx ns3::EthernetHeader ( length/type=0x806, source=00:00:00:00:00:07, destination=ff:ff:ff:ff:ff:ff) ns3::ArpHeader (request source mac: 00-06-00:00:00:00:00:07 source ipv4: 11.63.5.7 dest ipv4: 11.63.5.3) Payload (size=18) ns3::EthernetTrailer (fcs=0)
+ 2.0025 /NodeList/2/DeviceList/0/$ns3::CsmaNetDevice/TxQueue/Enqueue ns3::EthernetHeader ( length/type=0x806, source=00:00:00:00:00:03, destination=00:00:00:00:00:07) ns3::ArpHeader (reply source mac: 00-06-00:00:00:00:00:03 source ipv4: 11.63.5.3 dest mac: 00-06-00:00:00:00:00:07 dest ipv4: 11.63.5.7) Payload (size=18) ns3::EthernetTrailer (fcs=0)
- 2.0025 /NodeList/2/DeviceList/0/$ns3::CsmaNetDevice/TxQueue/Dequeue ns3::EthernetHeader ( length/type=0x806, source=00:00:00:00:00:03, destination=00:00:00:00:00:07) ns3::ArpHeader (reply source mac: 00-06-00:00:00:00:00:03 source ipv4: 11.63.5.3 dest mac: 00-06-00:00:00:00:00:07 dest ipv4: 11.63.5.7) Payload (size=18) ns3::EthernetTrailer (fcs=0)
r 2.0025 /NodeList/3/DeviceList/0/$ns3::CsmaNetDevice/MacRx ns3::EthernetHeader ( length/type=0x806, source=00:00:00:00:00:07, destination=ff:ff:ff:ff:ff:ff) ns3::ArpHeader (request source mac: 00-06-00:00:00:00:00:07 source ipv4: 11.63.5.7 dest ipv4: 11.63.5.3) Payload (size=18) ns3::EthernetTrailer (fcs=0)
r 2.0025 /NodeList/4/DeviceList/0/$ns3::CsmaNetDevice/MacRx ns3::EthernetHeader ( length/type=0x806, source=00:00:00:00:00:07, destination=ff:ff:ff:ff:ff:ff) ns3::ArpHeader (request source mac: 00-06-00:00:00:00:00:07 source ipv4: 11.63.5.7 dest ipv4: 11.63.5.3) Payload (size=18) ns3::EthernetTrailer (fcs=0)
r 2.0025 /NodeList/5/DeviceList/0/$ns3::CsmaNetDevice/MacRx ns3::EthernetHeader ( length/type=0x806, source=00:00:00:00:00:07, destination=ff:ff:ff:ff:ff:ff) ns3::ArpHeader (request source mac: 00-06-00:00:00:00:00:07 source ipv4: 11.63.5.7 dest ipv4: 11.63.5.3) Payload (size=18) ns3::EthernetTrailer (fcs=0)
r 2.0025 /NodeList/7/DeviceList/0/$ns3::CsmaNetDevice/MacRx ns3::EthernetHeader ( length/type=0x806, source=00:00:00:00:00:07, destination=ff:ff:ff:ff:ff:ff) ns3::ArpHeader (request source mac: 00-06-00:00:00:00:00:07 source ipv4: 11.63.5.7 dest ipv4: 11.63.5.3) Payload (size=18) ns3::EthernetTrailer (fcs=0)
+ 2.005 /NodeList/7/DeviceList/0/$ns3::CsmaNetDevice/TxQueue/Enqueue ns3::EthernetHeader ( length/type=0x806, source=00:00:00:00:00:08, destination=ff:ff:ff:ff:ff:ff) ns3::ArpHeader (request source mac: 00-06-00:00:00:00:00:08 source ipv4: 11.63.5.8 dest ipv4: 11.63.5.4) Payload (size=18) ns3::EthernetTrailer (fcs=0)
- 2.005 /NodeList/7/DeviceList/0/$ns3::CsmaNetDevice/TxQueue/Dequeue ns3::EthernetHeader ( length/type=0x806, source=00:00:00:00:00:08, destination=ff:ff:ff:ff:ff:ff) ns3::ArpHeader (request source mac: 00-06-00:00:00:00:00:08 source ipv4: 11.63.5.8 dest ipv4: 11.63.5.4) Payload (size=18) ns3::EthernetTrailer (fcs=0)
r 2.005 /NodeList/6/DeviceList/0/$ns3::CsmaNetDevice/MacRx ns3::EthernetHeader ( length/type=0x806, source=00:00:00:00:00:03, destination=00:00:00:00:00:07) ns3::ArpHeader (reply source mac: 00-06-00:00:00:00:00:03 source ipv4: 11.63.5.3 dest mac: 00-06-00:00:00:00:00:07 dest ipv4: 11.63.5.7) Payload (size=18) ns3::EthernetTrailer (fcs=0)
+ 2.005 /NodeList/6/DeviceList/0/$ns3::CsmaNetDevice/TxQueue/Enqueue ns3::EthernetHeader ( length/type=0x800, source=00:00:00:00:00:07, destination=00:00:00:00:00:03) ns3::Ipv4Header (tos 0x0 DSCP Default ECN Not-ECT ttl 64 id 0 protocol 17 offset (bytes) 0 flags [none] length: 1116 11.63.5.7 > 11.63.5.3) ns3::UdpHeader (length: 1096 49153 > 9) Payload (size=1088) ns3::EthernetTrailer (fcs=0)
- 2.005 /NodeList/6/DeviceList/0/$ns3::CsmaNetDevice/TxQueue/Dequeue ns3::EthernetHeader ( length/type=0x800, source=00:00:00:00:00:07, destination=00:00:00:00:00:03) ns3::Ipv4Header (tos 0x0 DSCP Default ECN Not-ECT ttl 64 id 0 protocol 17 offset (bytes) 0 flags [none] length: 1116 11.63.5.7 > 11.63.5.3) ns3::UdpHeader (length: 1096 49153 > 9) Payload (size=1088) ns3::EthernetTrailer (fcs=0)
r 2.0075 /NodeList/0/DeviceList/0/$ns3::CsmaNetDevice/MacRx ns3::EthernetHeader ( length/type=0x806, source=00:00:00:00:00:08, destination=ff:ff:ff:ff:ff:ff) ns3::ArpHeader (request source mac: 00-06-00:00:00:00:00:08 source ipv4: 11.63.5.8 dest ipv4: 11.63.5.4) Payload (size=18) ns3::EthernetTrailer (fcs=0)
r 2.0075 /NodeList/1/DeviceList/0/$ns3::CsmaNetDevice/MacRx ns3::EthernetHeader ( length/type=0x806, source=00:00:00:00:00:08, destination=ff:ff:ff:ff:ff:ff) ns3::ArpHeader (request source mac: 00-06-00:00:00:00:00:08 source ipv4: 11.63.5.8 dest ipv4: 11.63.5.4) Payload (size=18) ns3::EthernetTrailer (fcs=0)
r 2.0075 /NodeList/2/DeviceList/0/$ns3::CsmaNetDevice/MacRx ns3::EthernetHeader ( length/type=0x806, source=00:00:00:00:00:08, destination=ff:ff:ff:ff:ff:ff) ns3::ArpHeader (request source mac: 00-06-00:00:00:00:00:08 source ipv4: 11.63.5.8 dest ipv4: 11.63.5.4) Payload (size=18) ns3::EthernetTrailer (fcs=0)
r 2.0075 /NodeList/3/DeviceList/0/$ns3::CsmaNetDevice/MacRx ns3::EthernetHeader ( length/type=0x806, source=00:00:00:00:00:08, destination=ff:ff:ff:ff:ff:ff) ns3::ArpHeader (request source mac: 00-06-00:00:00:00:00:08 source ipv4: 11.63.5.8 dest ipv4: 11.63.5.4) Payload (size=18) ns3::EthernetTrailer (fcs=0)
+ 2.0075 /NodeList/3/DeviceList/0/$ns3::CsmaNetDevice/TxQueue/Enqueue ns3::EthernetHeader ( length/type=0x806, source=00:00:00:00:00:04, destination=00:00:00:00:00:08) ns3::ArpHeader (reply source mac: 00-06-00:00:00:00:00:04 source ipv4: 11.63.5.4 dest mac: 00-06-00:00:00:00:00:08 dest ipv4: 11.63.5.8) Payload (size=18) ns3::EthernetTrailer (fcs=0)
- 2.0075 /NodeList/3/DeviceList/0/$ns3::CsmaNetDevice/TxQueue/Dequeue ns3::EthernetHeader ( length/type=0x806, source=00:00:00:00:00:04, destination=00:00:00:00:00:08) ns3::ArpHeader (reply source mac: 00-06-00:00:00:00:00:04 source ipv4: 11.63.5.4 dest mac: 00-06-00:00:00:00:00:08 dest ipv4: 11.63.5.8) Payload (size=18) ns3::EthernetTrailer (fcs=0)
r 2.0075 /NodeList/4/DeviceList/0/$ns3::CsmaNetDevice/MacRx ns3::EthernetHeader ( length/type=0x806, source=00:00:00:00:00:08, destination=ff:ff:ff:ff:ff:ff) ns3::ArpHeader (request source mac: 00-06-00:00:00:00:00:08 source ipv4: 11.63.5.8 dest ipv4: 11.63.5.4) Payload (size=18) ns3::EthernetTrailer (fcs=0)
r 2.0075 /NodeList/5/DeviceList/0/$ns3::CsmaNetDevice/MacRx ns3::EthernetHeader ( length/type=0x806, source=00:00:00:00:00:08, destination=ff:ff:ff:ff:ff:ff) ns3::ArpHeader (request source mac: 00-06-00:00:00:00:00:08 source ipv4: 11.63.5.8 dest ipv4: 11.63.5.4) Payload (size=18) ns3::EthernetTrailer (fcs=0)
r 2.0075 /NodeList/6/DeviceList/0/$ns3::CsmaNetDevice/MacRx ns3::EthernetHeader ( length/type=0x806, source=00:00:00:00:00:08, destination=ff:ff:ff:ff:ff:ff) ns3::ArpHeader (request source mac: 00-06-00:00:00:00:00:08 source ipv4: 11.63.5.8 dest ipv4: 11.63.5.4) Payload (size=18) ns3::EthernetTrailer (fcs=0)
+ 2.009 /NodeList/1/DeviceList/0/$ns3::CsmaNetDevice/TxQueue/Enqueue ns3::EthernetHeader ( length/type=0x806, source=00:00:00:00:00:02, destination=ff:ff:ff:ff:ff:ff) ns3::ArpHeader (request source mac: 00-06-00:00:00:00:00:02 source ipv4: 11.63.5.2 dest ipv4: 11.63.5.6) Payload (size=18) ns3::EthernetTrailer (fcs=0)
- 2.009 /NodeList/1/DeviceList/0/$ns3::CsmaNetDevice/TxQueue/Dequeue ns3::EthernetHeader ( length/type=0x806, source=00:00:00:00:00:02, destination=ff:ff:ff:ff:ff:ff) ns3::ArpHeader (request source mac: 00-06-00:00:00:00:00:02 source ipv4: 11.63.5.2 dest ipv4: 11.63.5.6) Payload (size=18) ns3::EthernetTrailer (fcs=0)
r 2.01 /NodeList/7/DeviceList/0/$ns3::CsmaNetDevice/MacRx ns3::EthernetHeader ( length/type=0x806, source=00:00:00:00:00:04, destination=00:00:00:00:00:08) ns3::ArpHeader (reply source mac: 00-06-00:00:00:00:00:04 source ipv4: 11.63.5.4 dest mac: 00-06-00:00:00:00:00:08 dest ipv4: 11.63.5.8) Payload (size=18) ns3::EthernetTrailer (fcs=0)
+ 2.01 /NodeList/7/DeviceList/0/$ns3::CsmaNetDevice/TxQueue/Enqueue ns3::EthernetHeader ( length/type=0x800, source=00:00:00:00:00:08, destination=00:00:00:00:00:04) ns3::Ipv4Header (tos 0x0 DSCP Default ECN Not-ECT ttl 64 id 0 protocol 17 offset (bytes) 0 flags [none] length: 1116 11.63.5.8 > 11.63.5.4) ns3::UdpHeader (length: 1096 49153 > 9) Payload (size=1088) ns3::EthernetTrailer (fcs=0)
- 2.01 /NodeList/7/DeviceList/0/$ns3::CsmaNetDevice/TxQueue/Dequeue ns3::EthernetHeader ( length/type=0x800, source=00:00:00:00:00:08, destination=00:00:00:00:00:04) ns3::Ipv4Header (tos 0x0 DSCP Default ECN Not-ECT ttl 64 id 0 protocol 17 offset (bytes) 0 flags [none] length: 1116 11.63.5.8 > 11.63.5.4) ns3::UdpHeader (length: 1096 49153 > 9) Payload (size=1088) ns3::EthernetTrailer (fcs=0)
r 2.02086 /NodeList/3/DeviceList/0/$ns3::CsmaNetDevice/MacRx ns3::EthernetHeader ( length/type=0x800, source=00:00:00:00:00:08, destination=00:00:00:00:00:04) ns3::Ipv4Header (tos 0x0 DSCP Default ECN Not-ECT ttl 64 id 0 protocol 17 offset (bytes) 0 flags [none] length: 1116 11.63.5.8 > 11.63.5.4) ns3::UdpHeader (length: 1096 49153 > 9) Payload (size=1088) ns3::EthernetTrailer (fcs=0)
r 2.02338 /NodeList/1/DeviceList/0/$ns3::CsmaNetDevice/MacRx ns3::EthernetHeader ( length/type=0x806, source=00:00:00:00:00:01, destination=ff:ff:ff:ff:ff:ff) ns3::ArpHeader (request source mac: 00-06-00:00:00:00:00:01 source ipv4: 11.63.5.1 dest ipv4: 11.63.5.5) Payload (size=18) ns3::EthernetTrailer (fcs=0)
r 2.02338 /NodeList/2/DeviceList/0/$ns3::CsmaNetDevice/MacRx ns3::EthernetHeader ( length/type=0x806, source=00:00:00:00:00:01, destination=ff:ff:ff:ff:ff:ff) ns3::ArpHeader (request source mac: 00-06-00:00:00:00:00:01 source ipv4: 11.63.5.1 dest ipv4: 11.63.5.5) Payload (size=18) ns3::EthernetTrailer (fcs=0)
r 2.02338 /NodeList/3/DeviceList/0/$ns3::CsmaNetDevice/MacRx ns3::EthernetHeader ( length/type=0x806, source=00:00:00:00:00:01, destination=ff:ff:ff:ff:ff:ff) ns3::ArpHeader (request source mac: 00-06-00:00:00:00:00:01 source ipv4: 11.63.5.1 dest ipv4: 11.63.5.5) Payload (size=18) ns3::EthernetTrailer (fcs=0)
r 2.02338 /NodeList/4/DeviceList/0/$ns3::CsmaNetDevice/MacRx ns3::EthernetHeader ( length/type=0x806, source=00:00:00:00:00:01, destination=ff:ff:ff:ff:ff:ff) ns3::ArpHeader (request source mac: 00-06-00:00:00:00:00:01 source ipv4: 11.63.5.1 dest ipv4: 11.63.5.5) Payload (size=18) ns3::EthernetTrailer (fcs=0)
+ 2.02338 /NodeList/4/DeviceList/0/$ns3::CsmaNetDevice/TxQueue/Enqueue ns3::EthernetHeader ( length/type=0x806, source=00:00:00:00:00:05, destination=00:00:00:00:00:01) ns3::ArpHeader (reply source mac: 00-06-00:00:00:00:00:05 source ipv4: 11.63.5.5 dest mac: 00-06-00:00:00:00:00:01 dest ipv4: 11.63.5.1) Payload (size=18) ns3::EthernetTrailer (fcs=0)
- 2.02338 /NodeList/4/DeviceList/0/$ns3::CsmaNetDevice/TxQueue/Dequeue ns3::EthernetHeader ( length/type=0x806, source=00:00:00:00:00:05, destination=00:00:00:00:00:01) ns3::ArpHeader (reply source mac: 00-06-00:00:00:00:00:05 source ipv4: 11.63.5.5 dest mac: 00-06-00:00:00:00:00:01 dest ipv4: 11.63.5.1) Payload (size=18) ns3::EthernetTrailer (fcs=0)
r 2.02338 /NodeList/5/DeviceList/0/$ns3::CsmaNetDevice/MacRx ns3::EthernetHeader ( length/type=0x806, source=00:00:00:00:00:01, destination=ff:ff:ff:ff:ff:ff) ns3::ArpHeader (request source mac: 00-06-00:00:00:00:00:01 source ipv4: 11.63.5.1 dest ipv4: 11.63.5.5) Payload (size=18) ns3::EthernetTrailer (fcs=0)
r 2.02338 /NodeList/6/DeviceList/0/$ns3::CsmaNetDevice/MacRx ns3::EthernetHeader ( length/type=0x806, source=00:00:00:00:00:01, destination=ff:ff:ff:ff:ff:ff) ns3::ArpHeader (request source mac: 00-06-00:00:00:00:00:01 source ipv4: 11.63.5.1 dest ipv4: 11.63.5.5) Payload (size=18) ns3::EthernetTrailer (fcs=0)
r 2.02338 /NodeList/7/DeviceList/0/$ns3::CsmaNetDevice/MacRx ns3::EthernetHeader ( length/type=0x806, source=00:00:00:00:00:01, destination=ff:ff:ff:ff:ff:ff) ns3::ArpHeader (request source mac: 00-06-00:00:00:00:00:01 source ipv4: 11.63.5.1 dest ipv4: 11.63.5.5) Payload (size=18) ns3::EthernetTrailer (fcs=0)
+ 2.02386 /NodeList/3/DeviceList/0/$ns3::CsmaNetDevice/TxQueue/Enqueue ns3::EthernetHeader ( length/type=0x806, source=00:00:00:00:00:04, destination=ff:ff:ff:ff:ff:ff) ns3::ArpHeader (request source mac: 00-06-00:00:00:00:00:04 source ipv4: 11.63.5.4 dest ipv4: 11.63.5.8) Payload (size=18) ns3::EthernetTrailer (fcs=0)
- 2.02386 /NodeList/3/DeviceList/0/$ns3::CsmaNetDevice/TxQueue/Dequeue ns3::EthernetHeader ( length/type=0x806, source=00:00:00:00:00:04, destination=ff:ff:ff:ff:ff:ff) ns3::ArpHeader (request source mac: 00-06-00:00:00:00:00:04 source ipv4: 11.63.5.4 dest ipv4: 11.63.5.8) Payload (size=18) ns3::EthernetTrailer (fcs=0)
r 2.02588 /NodeList/0/DeviceList/0/$ns3::CsmaNetDevice/MacRx ns3::EthernetHeader ( length/type=0x806, source=00:00:00:00:00:05, destination=00:00:00:00:00:01) ns3::ArpHeader (reply source mac: 00-06-00:00:00:00:00:05 source ipv4: 11.63.5.5 dest mac: 00-06-00:00:00:00:00:01 dest ipv4: 11.63.5.1) Payload (size=18) ns3::EthernetTrailer (fcs=0)
+ 2.02588 /NodeList/0/DeviceList/0/$ns3::CsmaNetDevice/TxQueue/Enqueue ns3::EthernetHeader ( length/type=0x800, source=00:00:00:00:00:01, destination=00:00:00:00:00:05) ns3::Ipv4Header (tos 0x0 DSCP Default ECN Not-ECT ttl 64 id 0 protocol 17 offset (bytes) 0 flags [none] length: 1116 11.63.5.1 > 11.63.5.5) ns3::UdpHeader (length: 1096 49153 > 9) Payload (size=1088) ns3::EthernetTrailer (fcs=0)
- 2.02588 /NodeList/0/DeviceList/0/$ns3::CsmaNetDevice/TxQueue/Dequeue ns3::EthernetHeader ( length/type=0x800, source=00:00:00:00:00:01, destination=00:00:00:00:00:05) ns3::Ipv4Header (tos 0x0 DSCP Default ECN Not-ECT ttl 64 id 0 protocol 17 offset (bytes) 0 flags [none] length: 1116 11.63.5.1 > 11.63.5.5) ns3::UdpHeader (length: 1096 49153 > 9) Payload (size=1088) ns3::EthernetTrailer (fcs=0)
r 2.03674 /NodeList/4/DeviceList/0/$ns3::CsmaNetDevice/MacRx ns3::EthernetHeader ( length/type=0x800, source=00:00:00:00:00:01, destination=00:00:00:00:00:05) ns3::Ipv4Header (tos 0x0 DSCP Default ECN Not-ECT ttl 64 id 0 protocol 17 offset (bytes) 0 flags [none] length: 1116 11.63.5.1 > 11.63.5.5) ns3::UdpHeader (length: 1096 49153 > 9) Payload (size=1088) ns3::EthernetTrailer (fcs=0)
r 2.03926 /NodeList/0/DeviceList/0/$ns3::CsmaNetDevice/MacRx ns3::EthernetHeader ( length/type=0x806, source=00:00:00:00:00:04, destination=ff:ff:ff:ff:ff:ff) ns3::ArpHeader (request source mac: 00-06-00:00:00:00:00:04 source ipv4: 11.63.5.4 dest ipv4: 11.63.5.8) Payload (size=18) ns3::EthernetTrailer (fcs=0)
r 2.03926 /NodeList/1/DeviceList/0/$ns3::CsmaNetDevice/MacRx ns3::EthernetHeader ( length/type=0x806, source=00:00:00:00:00:04, destination=ff:ff:ff:ff:ff:ff) ns3::ArpHeader (request source mac: 00-06-00:00:00:00:00:04 source ipv4: 11.63.5.4 dest ipv4: 11.63.5.8) Payload (size=18) ns3::EthernetTrailer (fcs=0)
r 2.03926 /NodeList/2/DeviceList/0/$ns3::CsmaNetDevice/MacRx ns3::EthernetHeader ( length/type=0x806, source=00:00:00:00:00:04, destination=ff:ff:ff:ff:ff:ff) ns3::ArpHeader (request source mac: 00-06-00:00:00:00:00:04 source ipv4: 11.63.5.4 dest ipv4: 11.63.5.8) Payload (size=18) ns3::EthernetTrailer (fcs=0)
r 2.03926 /NodeList/4/DeviceList/0/$ns3::CsmaNetDevice/MacRx ns3::EthernetHeader ( length/type=0x806, source=00:00:00:00:00:04, destination=ff:ff:ff:ff:ff:ff) ns3::ArpHeader (request source mac: 00-06-00:00:00:00:00:04 source ipv4: 11.63.5.4 dest ipv4: 11.63.5.8) Payload (size=18) ns3::EthernetTrailer (fcs=0)
r 2.03926 /NodeList/5/DeviceList/0/$ns3::CsmaNetDevice/MacRx ns3::EthernetHeader ( length/type=0x806, source=00:00:00:00:00:04, destination=ff:ff:ff:ff:ff:ff) ns3::ArpHeader (request source mac: 00-06-00:00:00:00:00:04 source ipv4: 11.63.5.4 dest ipv4: 11.63.5.8) Payload (size=18) ns3::EthernetTrailer (fcs=0)
r 2.03926 /NodeList/6/DeviceList/0/$ns3::CsmaNetDevice/MacRx ns3::EthernetHeader ( length/type=0x806, source=00:00:00:00:00:04, destination=ff:ff:ff:ff:ff:ff) ns3::ArpHeader (request source mac: 00-06-00:00:00:00:00:04 source ipv4: 11.63.5.4 dest ipv4: 11.63.5.8) Payload (size=18) ns3::EthernetTrailer (fcs=0)
r 2.03926 /NodeList/7/DeviceList/0/$ns3::CsmaNetDevice/MacRx ns3::EthernetHeader ( length/type=0x806, source=00:00:00:00:00:04, destination=ff:ff:ff:ff:ff:ff) ns3::ArpHeader (request source mac: 00-06-00:00:00:00:00:04 source ipv4: 11.63.5.4 dest ipv4: 11.63.5.8) Payload (size=18) ns3::EthernetTrailer (fcs=0)
+ 2.03926 /NodeList/7/DeviceList/0/$ns3::CsmaNetDevice/TxQueue/Enqueue ns3::EthernetHeader ( length/type=0x806, source=00:00:00:00:00:08, destination=00:00:00:00:00:04) ns3::ArpHeader (reply source mac: 00-06-00:00:00:00:00:08 source ipv4: 11.63.5.8 dest mac: 00-06-00:00:00:00:00:04 dest ipv4: 11.63.5.4) Payload (size=18) ns3::EthernetTrailer (fcs=0)
- 2.03926 /NodeList/7/DeviceList/0/$ns3::CsmaNetDevice/TxQueue/Dequeue ns3::EthernetHeader ( length/type=0x806, source=00:00:00:00:00:08, destination=00:00:00:00:00:04) ns3::ArpHeader (reply source mac: 00-06-00:00:00:00:00:08 source ipv4: 11.63.5.8 dest mac: 00-06-00:00:00:00:00:04 dest ipv4: 11.63.5.4) Payload (size=18) ns3::EthernetTrailer (fcs=0)
r 2.04176 /NodeList/3/DeviceList/0/$ns3::CsmaNetDevice/MacRx ns3::EthernetHeader ( length/type=0x806, source=00:00:00:00:00:08, destination=00:00:00:00:00:04) ns3::ArpHeader (reply source mac: 00-06-00:00:00:00:00:08 source ipv4: 11.63.5.8 dest mac: 00-06-00:00:00:00:00:04 dest ipv4: 11.63.5.4) Payload (size=18) ns3::EthernetTrailer (fcs=0)
+ 2.04176 /NodeList/3/DeviceList/0/$ns3::CsmaNetDevice/TxQueue/Enqueue ns3::EthernetHeader ( length/type=0x800, source=00:00:00:00:00:04, destination=00:00:00:00:00:08) ns3::Ipv4Header (tos 0x0 DSCP Default ECN Not-ECT ttl 64 id 0 protocol 17 offset (bytes) 0 flags [none] length: 1116 11.63.5.4 > 11.63.5.8) ns3::UdpHeader (length: 1096 9 > 49153) Payload (size=1088) ns3::EthernetTrailer (fcs=0)
- 2.04176 /NodeList/3/DeviceList/0/$ns3::CsmaNetDevice/TxQueue/Dequeue ns3::EthernetHeader ( length/type=0x800, source=00:00:00:00:00:04, destination=00:00:00:00:00:08) ns3::Ipv4Header (tos 0x0 DSCP Default ECN Not-ECT ttl 64 id 0 protocol 17 offset (bytes) 0 flags [none] length: 1116 11.63.5.4 > 11.63.5.8) ns3::UdpHeader (length: 1096 9 > 49153) Payload (size=1088) ns3::EthernetTrailer (fcs=0)
+ 2.04274 /NodeList/4/DeviceList/0/$ns3::CsmaNetDevice/TxQueue/Enqueue ns3::EthernetHeader ( length/type=0x806, source=00:00:00:00:00:05, destination=ff:ff:ff:ff:ff:ff) ns3::ArpHeader (request source mac: 00-06-00:00:00:00:00:05 source ipv4: 11.63.5.5 dest ipv4: 11.63.5.1) Payload (size=18) ns3::EthernetTrailer (fcs=0)
- 2.04274 /NodeList/4/DeviceList/0/$ns3::CsmaNetDevice/TxQueue/Dequeue ns3::EthernetHeader ( length/type=0x806, source=00:00:00:00:00:05, destination=ff:ff:ff:ff:ff:ff) ns3::ArpHeader (request source mac: 00-06-00:00:00:00:00:05 source ipv4: 11.63.5.5 dest ipv4: 11.63.5.1) Payload (size=18) ns3::EthernetTrailer (fcs=0)
r 2.05262 /NodeList/7/DeviceList/0/$ns3::CsmaNetDevice/MacRx ns3::EthernetHeader ( length/type=0x800, source=00:00:00:00:00:04, destination=00:00:00:00:00:08) ns3::Ipv4Header (tos 0x0 DSCP Default ECN Not-ECT ttl 64 id 0 protocol 17 offset (bytes) 0 flags [none] length: 1116 11.63.5.4 > 11.63.5.8) ns3::UdpHeader (length: 1096 9 > 49153) Payload (size=1088) ns3::EthernetTrailer (fcs=0)
r 2.06355 /NodeList/2/DeviceList/0/$ns3::CsmaNetDevice/MacRx ns3::EthernetHeader ( length/type=0x800, source=00:00:00:00:00:07, destination=00:00:00:00:00:03) ns3::Ipv4Header (tos 0x0 DSCP Default ECN Not-ECT ttl 64 id 0 protocol 17 offset (bytes) 0 flags [none] length: 1116 11.63.5.7 > 11.63.5.3) ns3::UdpHeader (length: 1096 49153 > 9) Payload (size=1088) ns3::EthernetTrailer (fcs=0)
r 2.0666 /NodeList/0/DeviceList/0/$ns3::CsmaNetDevice/MacRx ns3::EthernetHeader ( length/type=0x806, source=00:00:00:00:00:02, destination=ff:ff:ff:ff:ff:ff) ns3::ArpHeader (request source mac: 00-06-00:00:00:00:00:02 source ipv4: 11.63.5.2 dest ipv4: 11.63.5.6) Payload (size=18) ns3::EthernetTrailer (fcs=0)
r 2.0666 /NodeList/2/DeviceList/0/$ns3::CsmaNetDevice/MacRx ns3::EthernetHeader ( length/type=0x806, source=00:00:00:00:00:02, destination=ff:ff:ff:ff:ff:ff) ns3::ArpHeader (request source mac: 00-06-00:00:00:00:00:02 source ipv4: 11.63.5.2 dest ipv4: 11.63.5.6) Payload (size=18) ns3::EthernetTrailer (fcs=0)
r 2.0666 /NodeList/3/DeviceList/0/$ns3::CsmaNetDevice/MacRx ns3::EthernetHeader ( length/type=0x806, source=00:00:00:00:00:02, destination=ff:ff:ff:ff:ff:ff) ns3::ArpHeader (request source mac: 00-06-00:00:00:00:00:02 source ipv4: 11.63.5.2 dest ipv4: 11.63.5.6) Payload (size=18) ns3::EthernetTrailer (fcs=0)
r 2.0666 /NodeList/4/DeviceList/0/$ns3::CsmaNetDevice/MacRx ns3::EthernetHeader ( length/type=0x806, source=00:00:00:00:00:02, destination=ff:ff:ff:ff:ff:ff) ns3::ArpHeader (request source mac: 00-06-00:00:00:00:00:02 source ipv4: 11.63.5.2 dest ipv4: 11.63.5.6) Payload (size=18) ns3::EthernetTrailer (fcs=0)
r 2.0666 /NodeList/5/DeviceList/0/$ns3::CsmaNetDevice/MacRx ns3::EthernetHeader ( length/type=0x806, source=00:00:00:00:00:02, destination=ff:ff:ff:ff:ff:ff) ns3::ArpHeader (request source mac: 00-06-00:00:00:00:00:02 source ipv4: 11.63.5.2 dest ipv4: 11.63.5.6) Payload (size=18) ns3::EthernetTrailer (fcs=0)
+ 2.0666 /NodeList/5/DeviceList/0/$ns3::CsmaNetDevice/TxQueue/Enqueue ns3::EthernetHeader ( length/type=0x806, source=00:00:00:00:00:06, destination=00:00:00:00:00:02) ns3::ArpHeader (reply source mac: 00-06-00:00:00:00:00:06 source ipv4: 11.63.5.6 dest mac: 00-06-00:00:00:00:00:02 dest ipv4: 11.63.5.2) Payload (size=18) ns3::EthernetTrailer (fcs=0)
- 2.0666 /NodeList/5/DeviceList/0/$ns3::CsmaNetDevice/TxQueue/Dequeue ns3::EthernetHeader ( length/type=0x806, source=00:00:00:00:00:06, destination=00:00:00:00:00:02) ns3::ArpHeader (reply source mac: 00-06-00:00:00:00:00:06 source ipv4: 11.63.5.6 dest mac: 00-06-00:00:00:00:00:02 dest ipv4: 11.63.5.2) Payload (size=18) ns3::EthernetTrailer (fcs=0)
r 2.0666 /NodeList/6/DeviceList/0/$ns3::CsmaNetDevice/MacRx ns3::EthernetHeader ( length/type=0x806, source=00:00:00:00:00:02, destination=ff:ff:ff:ff:ff:ff) ns3::ArpHeader (request source mac: 00-06-00:00:00:00:00:02 source ipv4: 11.63.5.2 dest ipv4: 11.63.5.6) Payload (size=18) ns3::EthernetTrailer (fcs=0)
r 2.0666 /NodeList/7/DeviceList/0/$ns3::CsmaNetDevice/MacRx ns3::EthernetHeader ( length/type=0x806, source=00:00:00:00:00:02, destination=ff:ff:ff:ff:ff:ff) ns3::ArpHeader (request source mac: 00-06-00:00:00:00:00:02 source ipv4: 11.63.5.2 dest ipv4: 11.63.5.6) Payload (size=18) ns3::EthernetTrailer (fcs=0)
r 2.0691 /NodeList/1/DeviceList/0/$ns3::CsmaNetDevice/MacRx ns3::EthernetHeader ( length/type=0x806, source=00:00:00:00:00:06, destination=00:00:00:00:00:02) ns3::ArpHeader (reply source mac: 00-06-00:00:00:00:00:06 source ipv4: 11.63.5.6 dest mac: 00-06-00:00:00:00:00:02 dest ipv4: 11.63.5.2) Payload (size=18) ns3::EthernetTrailer (fcs=0)
+ 2.0691 /NodeList/1/DeviceList/0/$ns3::CsmaNetDevice/TxQueue/Enqueue ns3::EthernetHeader ( length/type=0x800, source=00:00:00:00:00:02, destination=00:00:00:00:00:06) ns3::Ipv4Header (tos 0x0 DSCP Default ECN Not-ECT ttl 64 id 0 protocol 17 offset (bytes) 0 flags [none] length: 1116 11.63.5.2 > 11.63.5.6) ns3::UdpHeader (length: 1096 49153 > 9) Payload (size=1088) ns3::EthernetTrailer (fcs=0)
- 2.0691 /NodeList/1/DeviceList/0/$ns3::CsmaNetDevice/TxQueue/Dequeue ns3::EthernetHeader ( length/type=0x800, source=00:00:00:00:00:02, destination=00:00:00:00:00:06) ns3::Ipv4Header (tos 0x0 DSCP Default ECN Not-ECT ttl 64 id 0 protocol 17 offset (bytes) 0 flags [none] length: 1116 11.63.5.2 > 11.63.5.6) ns3::UdpHeader (length: 1096 49153 > 9) Payload (size=1088) ns3::EthernetTrailer (fcs=0)
+ 2.06955 /NodeList/2/DeviceList/0/$ns3::CsmaNetDevice/TxQueue/Enqueue ns3::EthernetHeader ( length/type=0x806, source=00:00:00:00:00:03, destination=ff:ff:ff:ff:ff:ff) ns3::ArpHeader (request source mac: 00-06-00:00:00:00:00:03 source ipv4: 11.63.5.3 dest ipv4: 11.63.5.7) Payload (size=18) ns3::EthernetTrailer (fcs=0)
- 2.06955 /NodeList/2/DeviceList/0/$ns3::CsmaNetDevice/TxQueue/Dequeue ns3::EthernetHeader ( length/type=0x806, source=00:00:00:00:00:03, destination=ff:ff:ff:ff:ff:ff) ns3::ArpHeader (request source mac: 00-06-00:00:00:00:00:03 source ipv4: 11.63.5.3 dest ipv4: 11.63.5.7) Payload (size=18) ns3::EthernetTrailer (fcs=0)
r 2.07996 /NodeList/5/DeviceList/0/$ns3::CsmaNetDevice/MacRx ns3::EthernetHeader ( length/type=0x800, source=00:00:00:00:00:02, destination=00:00:00:00:00:06) ns3::Ipv4Header (tos 0x0 DSCP Default ECN Not-ECT ttl 64 id 0 protocol 17 offset (bytes) 0 flags [none] length: 1116 11.63.5.2 > 11.63.5.6) ns3::UdpHeader (length: 1096 49153 > 9) Payload (size=1088) ns3::EthernetTrailer (fcs=0)
r 2.08254 /NodeList/0/DeviceList/0/$ns3::CsmaNetDevice/MacRx ns3::EthernetHeader ( length/type=0x806, source=00:00:00:00:00:05, destination=ff:ff:ff:ff:ff:ff) ns3::ArpHeader (request source mac: 00-06-00:00:00:00:00:05 source ipv4: 11.63.5.5 dest ipv4: 11.63.5.1) Payload (size=18) ns3::EthernetTrailer (fcs=0)
+ 2.08254 /NodeList/0/DeviceList/0/$ns3::CsmaNetDevice/TxQueue/Enqueue ns3::EthernetHeader ( length/type=0x806, source=00:00:00:00:00:01, destination=00:00:00:00:00:05) ns3::ArpHeader (reply source mac: 00-06-00:00:00:00:00:01 source ipv4: 11.63.5.1 dest mac: 00-06-00:00:00:00:00:05 dest ipv4: 11.63.5.5) Payload (size=18) ns3::EthernetTrailer (fcs=0)
- 2.08254 /NodeList/0/DeviceList/0/$ns3::CsmaNetDevice/TxQueue/Dequeue ns3::EthernetHeader ( length/type=0x806, source=00:00:00:00:00:01, destination=00:00:00:00:00:05) ns3::ArpHeader (reply source mac: 00-06-00:00:00:00:00:01 source ipv4: 11.63.5.1 dest mac: 00-06-00:00:00:00:00:05 dest ipv4: 11.63.5.5) Payload (size=18) ns3::EthernetTrailer (fcs=0)
r 2.08254 /NodeList/1/DeviceList/0/$ns3::CsmaNetDevice/MacRx ns3::EthernetHeader ( length/type=0x806, source=00:00:00:00:00:05, destination=ff:ff:ff:ff:ff:ff) ns3::ArpHeader (request source mac: 00-06-00:00:00:00:00:05 source ipv4: 11.63.5.5 dest ipv4: 11.63.5.1) Payload (size=18) ns3::EthernetTrailer (fcs=0)
r 2.08254 /NodeList/2/DeviceList/0/$ns3::CsmaNetDevice/MacRx ns3::EthernetHeader ( length/type=0x806, source=00:00:00:00:00:05, destination=ff:ff:ff:ff:ff:ff) ns3::ArpHeader (request source mac: 00-06-00:00:00:00:00:05 source ipv4: 11.63.5.5 dest ipv4: 11.63.5.1) Payload (size=18) ns3::EthernetTrailer (fcs=0)
r 2.08254 /NodeList/3/DeviceList/0/$ns3::CsmaNetDevice/MacRx ns3::EthernetHeader ( length/type=0x806, source=00:00:00:00:00:05, destination=ff:ff:ff:ff:ff:ff) ns3::ArpHeader (request source mac: 00-06-00:00:00:00:00:05 source ipv4: 11.63.5.5 dest ipv4: 11.63.5.1) Payload (size=18) ns3::EthernetTrailer (fcs=0)
r 2.08254 /NodeList/5/DeviceList/0/$ns3::CsmaNetDevice/MacRx ns3::EthernetHeader ( length/type=0x806, source=00:00:00:00:00:05, destination=ff:ff:ff:ff:ff:ff) ns3::ArpHeader (request source mac: 00-06-00:00:00:00:00:05 source ipv4: 11.63.5.5 dest ipv4: 11.63.5.1) Payload (size=18) ns3::EthernetTrailer (fcs=0)
r 2.08254 /NodeList/6/DeviceList/0/$ns3::CsmaNetDevice/MacRx ns3::EthernetHeader ( length/type=0x806, source=00:00:00:00:00:05, destination=ff:ff:ff:ff:ff:ff) ns3::ArpHeader (request source mac: 00-06-00:00:00:00:00:05 source ipv4: 11.63.5.5 dest ipv4: 11.63.5.1) Payload (size=18) ns3::EthernetTrailer (fcs=0)
r 2.08254 /NodeList/7/DeviceList/0/$ns3::CsmaNetDevice/MacRx ns3::EthernetHeader ( length/type=0x806, source=00:00:00:00:00:05, destination=ff:ff:ff:ff:ff:ff) ns3::ArpHeader (request source mac: 00-06-00:00:00:00:00:05 source ipv4: 11.63.5.5 dest ipv4: 11.63.5.1) Payload (size=18) ns3::EthernetTrailer (fcs=0)
r 2.08504 /NodeList/4/DeviceList/0/$ns3::CsmaNetDevice/MacRx ns3::EthernetHeader ( length/type=0x806, source=00:00:00:00:00:01, destination=00:00:00:00:00:05) ns3::ArpHeader (reply source mac: 00-06-00:00:00:00:00:01 source ipv4: 11.63.5.1 dest mac: 00-06-00:00:00:00:00:05 dest ipv4: 11.63.5.5) Payload (size=18) ns3::EthernetTrailer (fcs=0)